Lammps .data file creat at 2020-11-28T17:46:42.779 by Julia Package "lmp_str"

9		atoms
6		bonds
3		angles
0		dihedrals
0		impropers
2		atom types
1		bond types
1		angle types
0		dihedral types
0		improper types
0.0		3.0222		 xlo xhi
0.0		2.9383		 ylo yhi
0.0		10.1058		 zlo zhi


Masses

1	1.00784		# H
2	15.9994		# O


Atoms # full

1 1 1 0.417 0.0 0.0 0.0 
2 1 2 -0.834 0.7555 0.5876 0.0 
3 1 1 0.417 1.5111 0.0 0.0 
4 2 1 0.417 0.0 0.0 3.3686
5 2 2 -0.834 0.7555 0.5876 3.3686 
6 2 1 0.417 1.5111 0.0 3.3686 
7 3 1 0.417 0.0 0.0 6.7372 
8 3 2 -0.834 0.7555 0.5876 6.7372
9 3 1 0.417 1.5111 0.0 6.7372


Bonds

1 1 1 2 
2 1 2 3 
3 1 4 5 
4 1 5 6 
5 1 7 8 
6 1 8 9 


Angles

1 1 1 2 3 
2 1 4 5 6 
3 1 7 8 9 


