LAMMPS data file generated by OpenBabel
11 atoms
10 bonds
18 angles
18 dihedrals
0 impropers
2 atom types
2 bond types
3 angle types
2 dihedral types
0 improper types
  -2.64750    2.64750 xlo xhi
  -2.64750    2.64750 ylo yhi
  -2.64750    2.64750 zlo zhi



Masses

1 12.0107 # C
2 1.00794 # H


Atoms

1       1    1    0.00000    0.00000   -0.56890    0.00000 #   C
2       1    1    0.00000   -1.25710    0.28440    0.00000 #   C
3       1    1    0.00000    1.25710    0.28450    0.00000 #   C
4       1    2    0.41000    0.00000   -1.21830    0.88240 #   H
5       1    2    0.41000    0.00000   -1.21830   -0.88240 #   H
6       1    2    0.41000   -1.29690    0.92440    0.88730 #   H
7       1    2    0.41000   -1.29670    0.92450   -0.88720 #   H
8       1    2    0.41000   -2.14750   -0.35200   -0.00010 #   H
9       1    2    0.41000    2.14750   -0.35200    0.00000 #   H
10      1    2    0.41000    1.29680    0.92450    0.88720 #   H
11      1    2    0.41000    1.29680    0.92450   -0.88720 #   H


Bonds

1       1    1    2 #  C: C
2       1    1    3 #  C: C
3       2    1    4 #  C: H
4       2    1    5 #  C: H
5       2    2    6 #  C: H
6       2    2    7 #  C: H
7       2    2    8 #  C: H
8       2    3    9 #  C: H
9       2    3   10 #  C: H
10      2    3   11 #  C: H


Angles

1       1    3    1    2 #  C: C: C
2       2    2    1    4 #  C: C: H
3       2    2    1    5 #  C: C: H
4       2    3    1    4 #  C: C: H
5       2    3    1    5 #  C: C: H
6       3    5    1    4 #  H: C: H
7       2    1    2    6 #  C: C: H
8       2    1    2    7 #  C: C: H
9       2    1    2    8 #  C: C: H
10      3    7    2    6 #  H: C: H
11      3    8    2    6 #  H: C: H
12      3    8    2    7 #  H: C: H
13      2    1    3    9 #  C: C: H
14      2    1    3   10 #  C: C: H
15      2    1    3   11 #  C: C: H
16      3   10    3    9 #  H: C: H
17      3   11    3    9 #  H: C: H
18      3   11    3   10 #  H: C: H


Dihedrals

1       1    3    1    2    6 #  C: C: C: H
2       1    3    1    2    7 #  C: C: C: H
3       1    3    1    2    8 #  C: C: C: H
4       2    6    1    2    4 #  H: C: C: H
5       2    7    1    2    4 #  H: C: C: H
6       2    8    1    2    4 #  H: C: C: H
7       2    6    1    2    5 #  H: C: C: H
8       2    7    1    2    5 #  H: C: C: H
9       2    8    1    2    5 #  H: C: C: H
10      1    2    1    3    9 #  C: C: C: H
11      1    2    1    3   10 #  C: C: C: H
12      1    2    1    3   11 #  C: C: C: H
13      2    9    1    3    4 #  H: C: C: H
14      2   10    1    3    4 #  H: C: C: H
15      2   11    1    3    4 #  H: C: C: H
16      2    9    1    3    5 #  H: C: C: H
17      2   10    1    3    5 #  H: C: C: H
18      2   11    1    3    5 #  H: C: C: H
